/*--------------------------------*- C++ -*----------------------------------*\
| =========                 |                                                 |
| \\      /  F ield         | OpenFOAM: The Open Source CFD Toolbox           |
|  \\    /   O peration     | Version:  v2012                                 |
|   \\  /    A nd           | Website:  www.openfoam.com                      |
|    \\/     M anipulation  |                                                 |
\*---------------------------------------------------------------------------*/
FoamFile
{
    version     2.0;
    format      ascii;
    class       volVectorField;
    object      U;
}
// * * * * * * * * * * * * * * * * * * * * * * * * * * * * * * * * * * * * * //

dimensions      [0 1 -1 0 0 0 0];

internalField   uniform (0 0 0);

boundaryField
{
    inlet
    {
         type            flowRateInletVelocity;
         volumetricFlowRate    table
	 (
		(0 0)
		(1.7e-02 1.3e-05)
		(2.6e-02 3.1e-05)
		(3.6e-02 6.7e-05)
		(4.5e-02 1.1e-04)
		(5.0e-02 1.6e-04)
		(5.9e-02 2.4e-04)
		(6.4e-02 2.9e-04)
		(7.3e-02 3.6e-04)
		(7.7e-02 4.0e-04)
		(8.6e-02 4.4e-04)
		(1.0e-01 4.8e-04)
		(1.1e-01 4.9e-04)
		(1.3e-01 5.0e-04)
		(1.4e-01 4.8e-04)
		(1.5e-01 4.5e-04)
		(1.7e-01 4.1e-04)
		(1.9e-01 3.8e-04)
		(2.0e-01 3.5e-04)
		(2.2e-01 3.1e-04)
		(2.3e-01 2.8e-04)
		(2.4e-01 2.6e-04)
		(2.5e-01 2.3e-04)
		(2.6e-01 2.0e-04)	
		(2.8e-01 1.7e-04)
		(2.9e-01 1.4e-04)
		(3.0e-01 1.2e-04)
		(3.2e-01 6.3e-05)
		(3.3e-01 3.6e-05)
		(3.4e-01 1.3e-05)
		(3.6e-01 9.0e-06)
		(4.0e-01 9.0e-06)
		(4.2e-01 2.2e-05)
		(4.6e-01 3.6e-05)
		(4.8e-01 4.0e-05)
		(5.1e-01 4.0e-05)	
		(5.3e-01 3.1e-05)
		(5.5e-01 2.2e-05)
		(5.6e-01 1.3e-05)
		(6.0e-01 9.0e-06)
		(6.4e-01 9.0e-06)
		(6.6e-01 9.0e-06)
		(6.8e-01 9.0e-06)
		(7.1e-01 9.0e-06)
		(7.5e-01 9.0e-06)
		(7.8e-01 9.0e-06)
		(8.0e-01 9.0e-06)
		(8.2e-01 4.5e-06)
		(8.5e-01 4.5e-06)
		(8.8e-01 4.5e-06)
		(9.1e-01 9.0e-06)
		(9.3e-01 1.3e-05)
		(9.5e-01 1.8e-05)
		(9.7e-01 9.0e-06)
		(1 0)	
	 );
         value           uniform (0 0 0);	
    }
    outlet
    {
        type            inletOutlet;
        value           uniform (0 0 0);
        inletValue      uniform (0 0 0);
    }
    wall
    {
	      type 		fixedValue;
	      value		uniform (0 0 0); 
    }
    o1
    {
         type            flowRateInletVelocity;
         volumetricFlowRate    table
	 (
		(0 0)
		(1.7e-02 -2.6e-06)
		(2.6e-02 -6.0e-06)
		(3.6e-02 -1.3e-05)
		(4.5e-02 -2.2e-05)
		(5.0e-02 -3.2e-05)
		(5.9e-02 -4.6e-05)
		(6.4e-02 -5.6e-05)
		(7.3e-02 -7.1e-05)
		(7.7e-02 -7.7e-05)
		(8.6e-02 -8.5e-05)
		(1.0e-01 -9.2e-05)
		(1.1e-01 -9.5e-05)
		(1.3e-01 -9.6e-05)
		(1.4e-01 -9.2e-05)
		(1.5e-01 -8.7e-05)
		(1.7e-01 -7.9e-05)
		(1.9e-01 -7.3e-05)
		(2.0e-01 -6.7e-05)
		(2.2e-01 -6.1e-05)
		(2.3e-01 -5.5e-05)
		(2.4e-01 -5.0e-05)
		(2.5e-01 -4.5e-05)
		(2.6e-01 -3.9e-05)
		(2.8e-01 -3.3e-05)
		(2.9e-01 -2.8e-05)
		(3.0e-01 -2.4e-05)
		(3.2e-01 -1.2e-05)
		(3.3e-01 -6.9e-06)
		(3.4e-01 -2.6e-06)
		(3.6e-01 -1.7e-06)
		(4.0e-01 -1.7e-06)
		(4.2e-01 -4.3e-06)
		(4.6e-01 -6.9e-06)
		(4.8e-01 -7.8e-06)
		(5.1e-01 -7.8e-06)
		(5.3e-01 -6.0e-06)
		(5.5e-01 -4.3e-06)
		(5.6e-01 -2.6e-06)
		(6.0e-01 -1.7e-06)
		(6.4e-01 -1.7e-06)
		(6.6e-01 -1.7e-06)
		(6.8e-01 -1.7e-06)
		(7.1e-01 -1.7e-06)
		(7.5e-01 -1.7e-06)
		(7.8e-01 -1.7e-06)
		(8.0e-01 -1.7e-06)
		(8.2e-01 -8.6e-07)
		(8.5e-01 -8.6e-07)
		(8.8e-01 -8.6e-07)
		(9.1e-01 -1.7e-06)
		(9.3e-01 -2.6e-06)
		(9.5e-01 -3.4e-06)
		(9.7e-01 -1.7e-06)
		(1 0)		
         );
         value           uniform (0 0 0);	
    }
    o2
    {
         type            flowRateInletVelocity;
         volumetricFlowRate    table
	 (
		(0 0)
		(1.7e-02 -7.0e-07)
		(2.6e-02 -1.6e-06)
		(3.6e-02 -3.5e-06)
		(4.5e-02 -6.0e-06)
		(5.0e-02 -8.6e-06)
		(5.9e-02 -1.2e-05)
		(6.4e-02 -1.5e-05)
		(7.3e-02 -1.9e-05)
		(7.7e-02 -2.0e-05)
		(8.6e-02 -2.3e-05)
		(1.0e-01 -2.5e-05)
		(1.1e-01 -2.5e-05)
		(1.3e-01 -2.5e-05)
		(1.4e-01 -2.5e-05)
		(1.5e-01 -2.3e-05)
		(1.7e-01 -2.1e-05)
		(1.9e-01 -1.9e-05)
		(2.0e-01 -1.8e-05)
		(2.2e-01 -1.6e-05)
		(2.3e-01 -1.4e-05)
		(2.4e-01 -1.3e-05)
		(2.5e-01 -1.2e-05)
		(2.6e-01 -1.0e-05)
		(2.8e-01 -9.0e-06)
		(2.9e-01 -7.6e-06)
		(3.0e-01 -6.5e-06)
		(3.2e-01 -3.2e-06)
		(3.4e-01 -7.0e-07)
		(3.6e-01 -4.6e-07)
		(4.0e-01 -4.6e-07)
		(4.2e-01 -1.1e-06)
		(4.6e-01 -1.8e-06)
		(4.8e-01 -2.1e-06)
		(5.1e-01 -2.1e-06)
		(5.3e-01 -1.6e-06)
		(5.5e-01 -1.1e-06)
		(5.6e-01 -7.0e-07)
		(6.0e-01 -4.6e-07)
		(6.4e-01 -4.6e-07)
		(6.6e-01 -4.6e-07)
		(6.8e-01 -4.6e-07)
		(7.1e-01 -4.6e-07)
		(7.5e-01 -4.6e-07)
		(7.8e-01 -4.6e-07)
		(8.0e-01 -4.6e-07)
		(8.2e-01 -2.3e-07)
		(8.5e-01 -2.3e-07)
		(8.8e-01 -2.3e-07)
		(9.1e-01 -4.6e-07)
		(9.3e-01 -7.0e-07)
		(9.5e-01 -9.3e-07)
		(9.7e-01 -4.6e-07)
		(1 0)
         );
         value           uniform (0 0 0);
    }
    o3
    {
         type            flowRateInletVelocity;
         volumetricFlowRate    table
	 (
		(0 0)
		(1.7e-02 -8.6e-07)
		(2.6e-02 -2.0e-06)
		(3.6e-02 -4.3e-06)
		(4.5e-02 -7.4e-06)
		(5.0e-02 -1.0e-05)
		(5.9e-02 -1.5e-05)
		(6.4e-02 -1.8e-05)
		(7.3e-02 -2.3e-05)
		(7.7e-02 -2.5e-05)
		(8.6e-02 -2.8e-05)
		(1.0e-01 -3.0e-05)
		(1.1e-01 -3.1e-05)
		(1.3e-01 -3.1e-05)
		(1.4e-01 -3.0e-05)
		(1.5e-01 -2.9e-05)
		(1.7e-01 -2.6e-05)
		(1.9e-01 -2.4e-05)
		(2.0e-01 -2.2e-05)
		(2.2e-01 -2.0e-05)
		(2.3e-01 -1.8e-05)
		(2.4e-01 -1.6e-05)
		(2.5e-01 -1.5e-05)
		(2.6e-01 -1.3e-05)
		(2.8e-01 -1.1e-05)
		(2.9e-01 -9.4e-06)
		(3.0e-01 -8.0e-06)
		(3.2e-01 -4.0e-06)
		(3.3e-01 -2.3e-06)
		(3.4e-01 -8.6e-07)
		(3.6e-01 -5.7e-07)
		(4.0e-01 -5.7e-07)
		(4.2e-01 -1.4e-06)
		(4.6e-01 -2.3e-06)
		(4.8e-01 -2.5e-06)
		(5.1e-01 -2.5e-06)
		(5.3e-01 -2.0e-06)
		(5.5e-01 -1.4e-06)
		(5.6e-01 -8.6e-07)
		(6.0e-01 -5.7e-07)
		(6.4e-01 -5.7e-07)
		(6.6e-01 -5.7e-07)
		(6.8e-01 -5.7e-07)
		(7.1e-01 -5.7e-07)
		(7.5e-01 -5.7e-07)
		(7.8e-01 -5.7e-07)
		(8.0e-01 -5.7e-07)
		(8.2e-01 -2.8e-07)
		(8.5e-01 -2.8e-07)
		(8.8e-01 -2.8e-07)
		(9.1e-01 -5.7e-07)
		(9.3e-01 -8.6e-07)
		(9.5e-01 -1.1e-06)
		(9.7e-01 -5.7e-07)
		(1 0)
	 );
         value           uniform (0 0 0);
    }
}

// ************************************************************************* //
